/*--------------------------------*- C++ -*----------------------------------* \
| =========                 |                                                 |
| \\      /  F ield         | OpenFOAM: The Open Source CFD Toolbox           |
|  \\    /   O peration     | Version:  2.3.0                                 |
|   \\  /    A nd           | Web:      www.OpenFOAM.org                      |
|    \\/     M anipulation  |                                                 |
\*---------------------------------------------------------------------------*/
FoamFile
{
    version     2.0;
    format      ascii;
    class       volVectorField;
    location    "0";
    object      U;
}
// * * * * * * * * * * * * * * * * * * * * * * * * * * * * * * * * * * * * * //

dimensions      [0 1 -1 0 0 0 0];

internalField   uniform (0 0 0);

boundaryField
{
   MEMBRANE
    {
		type 	PROmembraneVelocity;
		//Check trans properties and s to ensure values are consistent
		A			= 1.74;		// [LMH BAR]
		B 			= 0.16;		// [LMH] 
		S			= 3.07e-4;		// [m]
		dP 			= 14.2;	 	// hydr pres diff [bar]XX
		C_Vant   	= 837.3;   // Van't Hoff coeff [bar]
		s_D 		= 0.035;	 	// draw side concentration []
		Dif 		= 1.48e-9;	// [m2/s]
		value	uniform (0 0 0);
    }

   INLET
    {
	type 		fixedValue;
	value		uniform (3 0 0);
    }
    
    OUTLET
    {
	type		zeroGradient;
    }    
    SYM
    {
        type            symmetry;
    }    
}

// ************************************************************************* //
